# vtk DataFile Version 3.0
Generated by Simversus FEM
ASCII
DATASET UNSTRUCTURED_GRID
POINTS 746 double
-0.249774 0.489299 4.99972
-0.249743 0.431301 4.99977
-0.0497256 0.389423 4.99971
-0.0497624 0.489415 4.99962
-0.0501271 0.492138 -4.99854
-0.250137 0.492198 -4.99845
-0.250157 0.434196 -4.99861
-0.0501714 0.392142 -4.99883
-0.0498093 -0.410476 5.00046
-0.0511111 -0.407829 -5.00105
-0.249839 -0.452326 5.00055
-0.251129 -0.449625 -5.00103
-0.24988 -0.510324 5.0006
-0.251184 -0.507626 -5.0012
-0.0498602 -0.510473 5.00054
-0.0512084 -0.507829 -5.00134
0.0501438 -0.510517 5.00051
0.0487876 -0.50793 -5.00142
0.250139 -0.510644 5.00047
0.248785 -0.508131 -5.00158
0.250171 -0.452643 5.00042
0.248841 -0.45013 -5.00141
0.0501902 -0.410519 5.00043
0.048891 -0.407933 -5.00113
0.0502736 0.389433 4.99966
0.0498318 0.392051 -4.99889
0.250247 0.431489 4.99952
0.249855 0.434045 -4.99889
0.250231 0.489492 4.99947
0.249864 0.492047 -4.99873
0.050241 0.489432 4.99957
0.0498642 0.492058 -4.9986
-0.0500022 0.488985 4.49959
-0.0501788 0.488568 3.99953
-0.0502542 0.48814 3.49945
-0.0501822 0.487608 2.99939
-0.0501387 0.486853 2.49936
-0.0500844 0.486014 1.99939
-0.0501238 0.485309 1.4995
-0.0502264 0.48485 0.999662
-0.05032 0.484628 0.499833
-0.0503046 0.484613 2.11334e-05
-0.0502523 0.484795 -0.499821
-0.0500581 0.485107 -0.999702
-0.049818 0.485381 -1.4996
-0.0496086 0.4857 -1.99947
-0.0494491 0.486138 -2.49933
-0.0493762 0.48685 -2.99916
-0.0494086 0.487762 -3.49895
-0.0495921 0.489081 -3.99872
-0.0498145 0.490674 -4.49857
-0.059816 0.490681 -4.49856
-0.0695967 0.489091 -3.99871
-0.0794129 0.487762 -3.49894
-0.0893808 0.486855 -2.99915
-0.099457 0.486132 -2.49934
-0.109613 0.485691 -1.99949
-0.119821 0.485385 -1.49962
-0.13006 0.485115 -0.999736
-0.140253 0.484779 -0.499844
-0.150314 0.484586 1.87143e-05
-0.160333 0.484593 0.499853
-0.170243 0.484808 0.999687
-0.180144 0.485271 1.49954
-0.190087 0.485989 1.99939
-0.200136 0.48682 2.49935
-0.21018 0.487563 2.99938
-0.220236 0.488062 3.49947
-0.230175 0.488461 3.9996
-0.24002 0.488878 4.49969
-0.249836 0.490731 -4.49849
-0.249616 0.489118 -3.99867
-0.24943 0.487784 -3.49892
-0.249398 0.486871 -2.99915
-0.249472 0.486142 -2.49935
-0.249625 0.4857 -1.99952
-0.249833 0.485395 -1.49966
-0.250058 0.485152 -0.999776
-0.250254 0.484809 -0.49988
-0.250325 0.484559 5.83644e-06
-0.250344 0.484562 0.499855
-0.250251 0.484775 0.999704
-0.25015 0.485248 1.49955
-0.250089 0.485974 1.9994
-0.250136 0.486809 2.49935
-0.250179 0.487549 2.99938
-0.250233 0.488044 3.49948
-0.250173 0.488449 3.99961
-0.250019 0.488871 4.49969
-0.249836 0.487822 -4.49749
-0.249616 0.483309 -3.99768
-0.249432 0.479075 -3.49794
-0.2494 0.475263 -2.99817
-0.249473 0.471634 -2.49837
-0.249626 0.468291 -1.99853
-0.249836 0.465086 -1.49867
-0.250067 0.461943 -0.998792
-0.250256 0.4587 -0.498894
-0.250318 0.455549 0.00100114
-0.250333 0.452654 0.500861
-0.250238 0.449966 1.00073
-0.250137 0.447538 1.5006
-0.250081 0.445367 2.00046
-0.250127 0.443304 2.50042
-0.250165 0.44115 3.00043
-0.25021 0.438744 3.50053
-0.250146 0.436247 4.00065
-0.249985 0.433768 4.50074
-0.249984 0.430873 4.49974
-0.250143 0.430452 3.99966
-0.250206 0.430049 3.49954
-0.250162 0.429556 2.99945
-0.250125 0.428809 2.49944
-0.250078 0.42797 1.99949
-0.250129 0.427241 1.49962
-0.250228 0.426768 0.999751
-0.250324 0.426558 0.499867
-0.25031 0.426553 -2.82338e-06
-0.250259 0.426802 -0.499909
-0.250075 0.427145 -0.999812
-0.24984 0.427391 -1.49969
-0.249627 0.427692 -1.99956
-0.24948 0.428138 -2.49942
-0.249407 0.428863 -2.99925
-0.249443 0.429773 -3.49905
-0.249626 0.431108 -3.99883
-0.249846 0.43273 -4.49867
-0.239845 0.430628 -4.49868
-0.229625 0.426904 -3.99884
-0.21944 0.423468 -3.49907
-0.209404 0.420458 -2.99927
-0.199473 0.417629 -2.49943
-0.189623 0.415088 -1.99956
-0.179831 0.412683 -1.49968
-0.170072 0.410318 -0.999794
-0.160254 0.407876 -0.499893
-0.150299 0.405579 -3.62939e-06
-0.140306 0.40349 0.499866
-0.130212 0.401617 0.999731
-0.120114 0.399984 1.49962
-0.110069 0.398601 1.99952
-0.100116 0.39734 2.49949
-0.0901555 0.395996 2.99951
-0.0802132 0.394423 3.49955
-0.0701397 0.39276 3.99963
-0.0599642 0.391091 4.49968
-0.0499631 0.388995 4.49968
-0.0501415 0.388576 3.99963
-0.0502149 0.38814 3.49955
-0.0501545 0.387603 2.99952
-0.0501139 0.386851 2.49951
-0.0500682 0.386005 1.99953
-0.050105 0.385301 1.49962
-0.0501962 0.384845 0.999723
-0.0502912 0.384613 0.499862
-0.050278 0.384604 1.44836e-05
-0.0502341 0.38478 -0.499862
-0.0500542 0.385097 -0.999763
-0.0498162 0.38537 -1.49965
-0.0496087 0.385691 -1.99955
-0.0494494 0.386138 -2.49944
-0.0493841 0.386838 -2.99933
-0.0494207 0.387756 -3.49915
-0.0496192 0.389071 -3.99898
-0.0498538 0.390674 -4.49887
-0.0496994 -0.0106011 5.00009
-0.0498885 0.350681 -4.49897
-0.0496571 0.309079 -3.99917
-0.0494627 0.267759 -3.49938
-0.0494118 0.226837 -2.9996
-0.049482 0.18616 -2.49969
-0.0496483 0.145703 -1.99979
-0.0498411 0.105356 -1.49986
-0.0500193 0.0650675 -0.999935
-0.0501372 0.0247622 -0.499989
-0.050157 -0.0154159 1.9978e-05
-0.050138 -0.0554241 0.50001
-0.0500095 -0.095194 1.00002
-0.0499456 -0.134706 1.50008
-0.049923 -0.174 2.00015
-0.0499594 -0.213154 2.50021
-0.0499901 -0.252399 3.00026
-0.0500306 -0.291849 3.50032
-0.0500352 -0.331344 4.00036
-0.0499342 -0.370924 4.50042
-0.0506568 -0.00778883 -4.99993
-0.0499427 -0.410913 4.50045
-0.0500438 -0.411332 4.00044
-0.0500074 -0.411828 3.50044
-0.0499593 -0.412375 3.00045
-0.0499191 -0.413141 2.50045
-0.0498629 -0.413991 2.00041
-0.0498624 -0.414696 1.50032
-0.0499093 -0.415178 1.00022
-0.0500101 -0.415422 0.500099
-0.0500572 -0.415402 -2.29981e-05
-0.0500254 -0.415207 -0.500076
-0.0500062 -0.414911 -1.00018
-0.0499098 -0.414629 -1.50028
-0.0497409 -0.414263 -2.00038
-0.0496139 -0.413796 -2.50047
-0.0495835 -0.413137 -3.00058
-0.0497974 -0.412264 -3.50075
-0.0502659 -0.410905 -4.00091
-0.0507367 -0.409306 -4.501
-0.0607395 -0.411394 -4.501
-0.0702625 -0.415087 -4.0009
-0.0797977 -0.41855 -3.50075
-0.0895823 -0.42151 -3.0006
-0.0996185 -0.424242 -2.50048
-0.109733 -0.426826 -2.0004
-0.119904 -0.429285 -1.50032
-0.130001 -0.431661 -1.0002
-0.140027 -0.434062 -0.500092
-0.150044 -0.436369 -4.95468e-06
-0.15999 -0.438529 0.50013
-0.169894 -0.440382 1.00024
-0.17984 -0.441993 1.50034
-0.189844 -0.443375 2.00043
-0.199905 -0.444599 2.50047
-0.209952 -0.445917 3.00047
-0.220011 -0.44743 3.50045
-0.230055 -0.449 4.00047
-0.239957 -0.450678 4.50053
-0.249958 -0.452771 4.50054
-0.250059 -0.453186 4.00048
-0.250015 -0.453711 3.50045
-0.249954 -0.454302 3.00048
-0.249911 -0.455078 2.50048
-0.249845 -0.455959 2.00044
-0.249832 -0.456683 1.50035
-0.249885 -0.457183 1.00025
-0.249985 -0.457396 0.500132
-0.250039 -0.457319 5.71755e-07
-0.250025 -0.457088 -0.500102
-0.250003 -0.456769 -1.00022
-0.249906 -0.456478 -1.50036
-0.249738 -0.456105 -2.00045
-0.249626 -0.455606 -2.50052
-0.249592 -0.454962 -3.00061
-0.249807 -0.454093 -3.50074
-0.25027 -0.452715 -4.00087
-0.250751 -0.451112 -4.50096
-0.250753 -0.454021 -4.49997
-0.250274 -0.458524 -3.99988
-0.249812 -0.4628 -3.49975
-0.249601 -0.466569 -2.99963
-0.249639 -0.470112 -2.49953
-0.249753 -0.473509 -1.99946
-0.249922 -0.476782 -1.49937
-0.250021 -0.479972 -0.999238
-0.250043 -0.483189 -0.499121
-0.250054 -0.486319 0.000986205
-0.24999 -0.489298 0.501138
-0.249886 -0.491986 1.00128
-0.249834 -0.494384 1.5014
-0.249853 -0.49656 2.00151
-0.249927 -0.498578 2.50155
-0.249972 -0.500707 3.00154
-0.250044 -0.503013 3.5015
-0.250095 -0.505389 4.00153
-0.249993 -0.507873 4.50158
-0.249995 -0.510767 4.50059
-0.250099 -0.511184 4.00054
-0.250049 -0.511708 3.50051
-0.249978 -0.512303 3.00056
-0.249934 -0.513073 2.50058
-0.249857 -0.513954 2.00054
-0.249835 -0.514678 1.50042
-0.249887 -0.515179 1.0003
-0.249994 -0.51539 0.500145
-0.250064 -0.515309 -2.00167e-05
-0.250063 -0.515081 -0.500139
-0.250046 -0.514762 -1.00026
-0.24995 -0.514474 -1.50039
-0.249787 -0.514101 -2.0005
-0.24968 -0.5136 -2.50058
-0.249641 -0.512958 -3.00071
-0.249856 -0.512089 -3.50086
-0.250324 -0.510714 -4.00102
-0.250808 -0.509106 -4.50114
-0.240809 -0.509114 -4.50115
-0.230325 -0.510733 -4.00104
-0.219861 -0.512116 -3.50089
-0.209646 -0.512993 -3.00072
-0.199683 -0.513649 -2.50058
-0.189791 -0.514155 -2.00049
-0.179955 -0.51453 -1.50038
-0.170052 -0.514823 -1.00025
-0.160067 -0.515142 -0.500134
-0.15007 -0.515361 -2.47038e-05
-0.139997 -0.515423 0.50014
-0.129899 -0.515178 1.00029
-0.119847 -0.514692 1.50043
-0.109857 -0.513981 2.00054
-0.0999242 -0.513128 2.50059
-0.0899669 -0.512363 3.00058
-0.0800395 -0.511804 3.50054
-0.0700893 -0.511308 4.00054
-0.0599924 -0.510905 4.50055
-0.0499912 -0.510907 4.50054
-0.0500849 -0.511319 4.00054
-0.0500346 -0.511814 3.50055
-0.0499637 -0.512369 3.00058
-0.0499199 -0.51313 2.5006
-0.049857 -0.513981 2.00055
-0.0498501 -0.514686 1.50043
-0.0499 -0.515165 1.00028
-0.0500012 -0.515407 0.500132
-0.0500738 -0.515395 -2.93928e-05
-0.0500638 -0.515192 -0.500122
-0.0500467 -0.514899 -1.00024
-0.0499492 -0.514622 -1.50035
-0.0497896 -0.514259 -2.00046
-0.0496843 -0.513777 -2.50058
-0.0496509 -0.513123 -3.00073
-0.0498673 -0.512253 -3.50097
-0.0503443 -0.510897 -4.00118
-0.0508305 -0.5093 -4.5013
-0.0458311 -0.509304 -4.50131
-0.0403459 -0.510907 -4.00119
-0.0348689 -0.51226 -3.50098
-0.0296528 -0.513132 -3.00074
-0.0246841 -0.513797 -2.50057
-0.0197912 -0.514267 -2.00045
-0.0149505 -0.514629 -1.50034
-0.0100492 -0.514908 -1.00023
-0.00506497 -0.515198 -0.500119
-7.42023e-05 -0.515393 -2.8125e-05
0.00499386 -0.515394 0.500119
0.0100979 -0.515153 1.00027
0.0151429 -0.514669 1.50042
0.0201434 -0.513977 2.00055
0.0250881 -0.513127 2.5006
0.0300445 -0.512372 3.00059
0.0349809 -0.511827 3.50056
0.0399316 -0.511353 4.00053
0.0450183 -0.510935 4.50052
0.0500185 -0.510936 4.50052
0.0499321 -0.511355 4.00053
0.049982 -0.511827 3.50056
0.0500466 -0.512368 3.0006
0.0500892 -0.513123 2.5006
0.0501423 -0.513974 2.00054
0.0501393 -0.51466 1.50042
0.0500943 -0.515146 1.00027
0.0499847 -0.515388 0.500113
0.0499184 -0.515391 -2.80005e-05
[...]
POINT_DATA 746
FIELD POINT_FIELD 4
displacement_X 1 746 double
0.000226484
0.000256797
0.000274408
0.000237628
-0.000127082
-0.000136792
-0.000157302
-0.00017136
0.000190727
-0.00111111
0.000161474
-0.0011293
0.000120215
-0.00118426
0.000139788
-0.00120845
0.000143773
-0.00121243
0.000138918
-0.00121542
0.000170558
-0.00115861
0.000190211
-0.00110904
0.000273582
-0.000168178
0.000247494
-0.000144577
0.00023091
-0.000135517
0.000241016
-0.000135786
-2.22047e-06
-0.000178848
-0.000254172
-0.000182235
-0.000138652
-8.4359e-05
-0.000123785
-0.000226434
-0.000320042
-0.000304582
-0.000252297
-5.81189e-05
0.000182015
0.000391386
0.000550911
0.000623838
0.000591354
0.000407894
0.000185531
0.000184003
0.000403261
0.000587067
0.000619234
0.000543033
0.000386691
0.000178593
-5.96156e-05
-0.000252607
-0.000313532
-0.000332536
-0.000243291
-0.000144253
-8.73607e-05
-0.000135758
-0.00018024
-0.000236002
-0.000175243
-1.95336e-05
0.000163583
0.000383924
0.000569633
0.000601604
0.000528273
0.000374828
0.000166885
-5.82456e-05
-0.000253825
-0.000324511
-0.000344431
-0.000250955
-0.00014997
-8.92791e-05
-0.000136258
-0.000178781
-0.000233075
-0.000173223
-1.88969e-05
0.000163813
0.000383516
0.000568285
0.000600107
0.000526877
0.000374272
0.000163516
-6.73222e-05
-0.000256133
-0.000317672
-0.000333139
-0.000237542
-0.000136915
-8.10997e-05
-0.000126755
-0.000165097
-0.000209986
-0.000146318
1.47093e-05
1.60928e-05
-0.000143211
-0.000206254
-0.000161929
-0.000124611
-7.75564e-05
-0.000129296
-0.000228104
-0.000323898
-0.000309839
-0.000259143
-7.51249e-05
0.000159595
0.000373197
0.000520474
0.000593372
0.00055732
0.00037417
0.000153648
0.000154533
0.000375182
0.000559748
0.000596082
0.000527209
0.000376529
0.000168954
-7.17661e-05
-0.000253995
-0.000298568
-0.000306128
-0.000211628
-0.000113571
-6.85344e-05
-0.000116053
-0.000155349
-0.000213028
-0.000139528
3.59995e-05
3.68537e-05
-0.000141466
-0.000214871
-0.00015446
-0.000113888
-6.81672e-05
-0.000104988
-0.000196237
-0.000291211
-0.000277968
-0.000234053
-5.42175e-05
0.000183827
0.000391339
0.000550634
0.000615929
0.00057933
0.000380792
0.00014618
0.000300609
0.000111457
0.000342937
0.000537313
0.000588236
0.000518018
0.000351693
0.000158942
-1.93489e-05
-0.000137152
-0.000157033
-0.000138002
-9.5305e-06
5.43669e-05
7.70418e-05
4.0593e-05
9.8854e-06
-3.05626e-05
-3.5206e-05
6.58042e-05
-0.000656832
5.73446e-05
-4.38209e-05
-7.35244e-06
4.07064e-05
8.0884e-05
0.000137091
0.000137595
9.06957e-05
-1.01251e-05
-5.71972e-05
-2.53581e-05
-6.21785e-06
9.02293e-05
0.000259068
0.000386116
0.00041646
0.000202552
-0.000265914
-0.000736684
-0.000739492
-0.000262502
0.000202256
0.000417743
0.000381482
0.00026667
9.61531e-05
-1.21493e-06
-2.66413e-05
-4.44911e-05
1.04639e-05
0.00010635
0.000159961
0.000155799
9.52045e-05
4.81453e-05
-1.05902e-05
-5.4642e-05
4.33932e-05
4.15631e-05
-5.85705e-05
-1.54096e-05
4.56118e-05
8.90731e-05
0.000155354
0.00016789
0.000115442
1.48741e-05
-3.91075e-05
-2.47744e-05
-2.87653e-06
9.38854e-05
0.000261657
0.000373672
0.000408337
0.000193036
-0.000270334
-0.000750721
-0.000753336
-0.000274396
0.000187568
0.000398576
0.000360805
0.000246759
7.77874e-05
-2.12304e-05
-4.26227e-05
-5.41126e-05
9.57754e-06
0.000114117
0.000166371
0.000146728
7.27688e-05
2.79065e-05
-4.36068e-05
-9.47657e-05
7.22081e-06
5.13575e-06
-9.92296e-05
-4.92304e-05
2.23103e-05
6.62656e-05
0.000142766
0.000164737
0.000113019
5.88306e-06
-6.41152e-05
-6.26862e-05
-4.55678e-05
4.96865e-05
0.000213345
0.000319617
0.00035877
0.000144051
-0.000323804
-0.000807897
-0.000809436
-0.000325338
0.00013945
0.000354303
0.000317448
0.000209218
4.49125e-05
-5.20564e-05
-6.73043e-05
-6.96543e-05
2.68897e-06
0.000101416
0.000153423
0.00014331
7.58022e-05
3.31028e-05
-3.95126e-05
-8.93208e-05
7.63963e-06
8.80616e-06
-8.49392e-05
-3.45745e-05
3.63204e-05
8.01364e-05
0.000142986
0.000149861
9.99623e-05
-1.18457e-06
-7.38012e-05
-6.38173e-05
-4.67119e-05
5.07529e-05
0.000210364
0.000315654
0.000349149
0.000132653
-0.000344252
-0.000830468
-0.000831085
-0.000345851
0.000131053
0.000347194
0.000315879
0.000208779
4.9505e-05
-4.91749e-05
-6.49744e-05
-7.42023e-05
-6.13938e-06
9.79022e-05
0.000142923
0.000143413
8.80672e-05
4.45355e-05
-1.90677e-05
-6.83791e-05
1.83095e-05
1.84725e-05
-6.79107e-05
-1.79937e-05
4.66366e-05
8.91735e-05
0.000142348
0.000139262
9.43351e-05
-1.53331e-05
-8.15872e-05
-7.478e-05
-5.83665e-05
3.94483e-05
0.000201929
0.000309114
0.000329601
0.000114302
-0.000363914
-0.00083733
-0.000838116
-0.000368267
0.000105391
0.000318166
0.000299457
0.000187491
2.80695e-05
-7.14566e-05
-9.55313e-05
-9.73844e-05
-4.0889e-05
7.85081e-05
0.000121865
0.000128341
8.13565e-05
4.56306e-05
-1.93301e-05
-7.27828e-05
2.46914e-05
2.56768e-05
-7.19937e-05
-1.55179e-05
4.61718e-05
8.02323e-05
0.000124195
0.00011816
7.49569e-05
-4.95271e-05
-0.000110042
-0.000105055
-8.39349e-05
1.43531e-05
0.000169798
0.000278122
0.000287922
7.26379e-05
-0.0004014
-0.000858825
-0.000854707
-0.000393842
8.25369e-05
0.000298948
0.000289589
0.000184094
3.01045e-05
-6.5398e-05
-8.65455e-05
-9.36193e-05
-3.48324e-05
8.01707e-05
0.000120012
0.000123996
8.16112e-05
4.82717e-05
-4.75551e-06
-4.39148e-05
5.98734e-05
6.16835e-05
-4.06963e-05
-1.98512e-06
4.97687e-05
8.26516e-05
0.000124784
0.000121901
8.41534e-05
-2.73049e-05
-8.01263e-05
-6.32399e-05
-3.72979e-05
6.02165e-05
0.000218957
0.000327002
0.000340037
0.000129077
-0.000340654
-0.000794766
-0.000792078
-0.00033255
0.00014119
0.000354879
0.000342482
0.000233494
7.2439e-05
-2.19377e-05
-4.50417e-05
-6.30476e-05
-2.33517e-05
8.85001e-05
0.00012945
0.000135203
8.59226e-05
5.03832e-05
1.98873e-06
-3.96285e-05
6.64665e-05
6.54452e-05
-4.1394e-05
-3.15842e-07
4.74577e-05
8.39998e-05
0.000134528
0.00012954
8.49892e-05
-1.60297e-05
-6.35091e-05
-3.2832e-05
-1.11125e-05
8.39819e-05
0.000251397
0.000371801
0.000404265
0.000192338
-0.00027066
-0.000736755
0.0003031
-0.000691972
-0.000201454
0.000262539
0.000462442
0.000422636
0.000299686
0.000122842
-1.88035e-05
-0.000120274
-0.000155939
-0.000160416
-6.66902e-05
-1.21161e-05
-3.87838e-06
-6.14535e-05
-0.000116886
-0.000183919
-0.000119943
4.33519e-05
-0.000653985
3.76961e-05
-0.000146994
-0.000226208
-0.000159188
-0.000114543
-6.79699e-05
-9.32121e-05
-0.000185411
-0.00028153
-0.000269056
-0.000228349
-4.55592e-05
0.000190859
0.000399079
0.000566836
0.000629635
0.000596055
0.000399848
0.000156704
0.000159448
0.000403976
0.000600638
0.00063324
0.00057201
0.000403407
0.000191981
-4.01921e-05
-0.000225317
-0.000259917
-0.000270215
-0.000180008
-9.15155e-05
-8.085e-05
-0.000121647
-0.000171195
-0.000247724
-0.000161134
2.75849e-05
2.75581e-05
-0.00016252
-0.000249385
-0.000174611
-0.000129956
-8.14026e-05
-8.06756e-05
-0.000173125
-0.000263379
-0.000252321
-0.000219491
-3.137e-05
0.000198333
0.000412236
0.000586998
0.000651521
0.000622794
0.000427866
0.000186693
0.000187338
0.000428707
0.000623758
0.000651703
0.000586742
0.000411215
0.000195567
-3.59534e-05
-0.000224813
-0.000256967
-0.00026884
-0.000171967
-7.74468e-05
-8.53738e-05
-0.000142487
-0.000188802
-0.000271616
-0.000182317
6.46716e-06
5.32252e-06
-0.000184999
-0.000275165
-0.000191943
-0.000145527
-8.77316e-05
-7.50198e-05
-0.000171877
-0.000271571
-0.000261686
-0.0002287
-4.01189e-05
0.000190917
0.00040626
0.000584148
0.000652008
0.00062296
0.000427263
0.000185293
0.000184332
0.000425135
0.000619368
0.000648524
0.000578543
0.000404322
0.00018688
-4.67695e-05
-0.000238135
-0.000276627
-0.000286058
-0.000192117
-9.55225e-05
-8.35877e-05
-0.000140495
-0.000189855
-0.000266035
-0.000184729
4.53579e-06
4.39902e-06
-0.000183839
-0.000263021
-0.000188783
-0.000140288
-8.63465e-05
-0.000108623
-0.000205932
-0.000303166
-0.000290992
-0.000248483
-5.74999e-05
0.000183672
0.00039642
0.000564876
0.000632386
0.000606271
0.000420409
0.000189909
0.00019033
0.00042137
0.000603689
0.00063123
0.000561315
0.000395007
0.000184012
-5.74586e-05
-0.000251255
-0.000298208
-0.000313368
-0.000219094
-0.00011873
-8.39083e-05
-0.000139044
-0.000183816
-0.000255241
-0.000179575
-1.50942e-06
-0.000655664
0.000301997
-1.4921e-05
0.000175135
6.81994e-05
-0.000174072
-8.77538e-05
3.55138e-06
-5.90655e-05
-8.1003e-05
-1.15589e-05
0.000462661
0.000240847
-5.64884e-05
0.000102555
5.88975e-05
-0.00097458
-2.87857e-05
0.000125027
7.25032e-05
-0.00101059
-4.55711e-05
-6.30115e-05
-1.30724e-06
0.000513141
0.000309813
1.60518e-05
0.00017505
8.13833e-05
1.79496e-05
-2.61912e-05
0.000125475
0.00028533
0.000189416
-0.00089023
-0.000103059
-2.40665e-05
-0.000139152
-0.000186879
-0.000143104
-3.04404e-05
-6.77467e-05
-0.000113411
-5.54026e-05
-0.000627113
-0.000524225
-0.000329961
0.000396737
-0.000589847
-0.000872655
0.000121093
-0.000181492
-4.70038e-05
-0.000807735
-0.00020392
0.000301131
-3.39834e-05
7.018e-05
-6.74247e-05
-2.37305e-06
-9.46263e-05
-0.000114221
5.97671e-05
1.93328e-05
6.09545e-05
-4.06786e-05
0.0001342
5.62572e-05
-9.00791e-05
3.66411e-05
-0.000586447
-0.000678042
0.000136926
-5.66161e-05
-2.93538e-05
-0.000941624
0.00034109
-7.23617e-05
0.000103541
8.33961e-05
-0.000409643
0.00013132
-4.02451e-05
-0.000524116
-8.4106e-05
-0.000153611
0.000262294
-1.85147e-05
-8.23805e-06
-0.000130407
-0.00105681
-9.28162e-05
5.67729e-05
-0.000832898
8.68774e-06
0.000249684
-0.000208943
9.72605e-05
-9.97076e-05
-1.26187e-05
2.96558e-05
-0.000140581
displacement_Y 1 746 double
-0.010701
-0.0106988
-0.010577
-0.0105852
-0.00786177
-0.00780235
-0.00780406
-0.00785817
-0.0104764
-0.00782871
-0.0103261
-0.00762515
-0.0103237
-0.00762615
-0.0104734
-0.00782867
-0.0105172
-0.00792971
-0.0106437
-0.00813136
-0.0106428
-0.00813036
-0.0105193
-0.00793253
-0.0105666
-0.00794886
-0.010511
-0.00795481
-0.0105084
-0.00795259
-0.0105678
-0.00794229
-0.0110147
-0.0114317
-0.01186
-0.0123921
-0.0131471
-0.0139864
-0.014691
-0.01515
-0.0153716
-0.0153867
-0.0152049
-0.0148929
-0.014619
-0.0143003
-0.0138623
-0.0131502
-0.0122383
-0.0109187
-0.00932627
-0.00931906
-0.0109089
-0.0122381
-0.0131453
-0.0138682
-0.0143091
-0.0146153
-0.014885
-0.015221
-0.0154137
-0.0154069
-0.0151924
-0.014729
-0.0140106
-0.0131804
-0.0124367
-0.0119384
-0.0115387
-0.0111222
-0.00926944
-0.0108819
-0.0122164
-0.0131288
-0.0138582
-0.0143001
-0.0146053
-0.0148481
-0.0151905
-0.0154409
-0.0154376
-0.0152253
-0.0147516
-0.0140256
-0.0131909
-0.012451
-0.0119556
-0.0115508
-0.0111286
-0.00927221
-0.0108853
-0.0122192
-0.0131308
-0.0138604
-0.0143029
-0.0146079
-0.0148513
-0.0151941
-0.0154448
-0.0154399
-0.0152283
-0.0147556
-0.0140274
-0.0131898
-0.0124441
-0.0119501
-0.0115473
-0.011126
-0.0111267
-0.0115481
-0.0119508
-0.0124445
-0.0131914
-0.0140304
-0.0147589
-0.0152317
-0.015442
-0.0154468
-0.0151985
-0.0148547
-0.0146091
-0.0143081
-0.0138624
-0.0131366
-0.0122273
-0.0108923
-0.00926997
-0.00927226
-0.0108959
-0.012232
-0.0131421
-0.0138711
-0.0143121
-0.0146166
-0.0148817
-0.0152238
-0.0154205
-0.0154096
-0.0151834
-0.0147164
-0.0139994
-0.0131604
-0.0124036
-0.0118765
-0.01144
-0.0110095
-0.0110051
-0.0114241
-0.0118603
-0.0123968
-0.0131494
-0.013995
-0.0146994
-0.0151554
-0.0153868
-0.0153958
-0.0152196
-0.0149029
-0.01463
-0.0143095
-0.0138621
-0.013162
-0.0122441
-0.010929
-0.00932595
-0.0105211
-0.00931868
-0.0109214
-0.012241
-0.0131626
-0.0138398
-0.0142973
-0.0146438
-0.0149325
-0.0152378
-0.0154159
-0.0154241
-0.015194
-0.0147058
-0.0139996
-0.0131543
-0.0123993
-0.0118487
-0.0113435
-0.010924
-0.00786883
-0.010913
-0.0113323
-0.0118284
-0.0123752
-0.013141
-0.0139915
-0.014696
-0.0151783
-0.0154216
-0.015402
-0.0152073
-0.014911
-0.014629
-0.0142631
-0.0137957
-0.0131372
-0.0122642
-0.0109054
-0.00930638
-0.00929432
-0.0108869
-0.0122498
-0.0131095
-0.013742
-0.0142263
-0.0145853
-0.0148615
-0.0151623
-0.0153686
-0.0154295
-0.015182
-0.0146932
-0.0139747
-0.013099
-0.0123169
-0.01173
-0.0111998
-0.0107778
-0.0107706
-0.0111859
-0.0117113
-0.012302
-0.0130784
-0.0139591
-0.0146828
-0.0151832
-0.0153958
-0.0153187
-0.015088
-0.0147692
-0.0144781
-0.0141048
-0.0136063
-0.0129625
-0.0120932
-0.0107153
-0.00911189
-0.00911461
-0.0107179
-0.0120941
-0.0129627
-0.0136064
-0.0141034
-0.0144757
-0.0147661
-0.0150831
-0.0153128
-0.0153924
-0.0151803
-0.0146781
-0.0139539
-0.013072
-0.0123014
-0.0117071
-0.0111826
-0.0107666
-0.0107672
-0.0111835
-0.0117079
-0.0123027
-0.0130725
-0.0139541
-0.0146777
-0.0151792
-0.0153896
-0.0153086
-0.0150805
-0.0147623
-0.0144742
-0.0141007
-0.0136004
-0.0129575
-0.0120887
-0.0107138
-0.00910573
-0.00911449
-0.0107334
-0.012116
-0.012993
-0.0136485
-0.0141552
-0.0145299
-0.0148227
-0.0151418
-0.0153608
-0.0154228
-0.0151784
-0.0146917
-0.0139814
-0.0131281
-0.0123634
-0.0118037
-0.0113082
-0.0109046
-0.0109069
-0.0113192
-0.011814
-0.0123692
-0.0131302
-0.0139813
-0.0146863
-0.0151649
-0.0154072
-0.0153948
-0.0151919
-0.0148989
-0.0146217
-0.0142588
-0.0137773
-0.0131231
-0.0122529
-0.0108974
-0.00929953
-0.0093036
-0.0109067
-0.01226
-0.0131317
-0.0137972
-0.0142669
-0.014629
-0.0149081
-0.0151982
-0.015393
-0.0153942
-0.0151531
-0.014669
-0.0139765
-0.0131271
-0.0123724
-0.0118267
-0.0113531
-0.0109348
-0.0109362
-0.0113553
-0.0118272
-0.012368
-0.0131226
-0.0139743
-0.0146603
-0.0151455
-0.0153879
-0.0153912
-0.0152118
-0.0149197
-0.0146491
-0.0142881
-0.0138403
-0.0131802
-0.0123129
-0.0109918
-0.00940424
-0.0094145
-0.0110113
-0.0123352
-0.0132106
-0.0138765
-0.014318
-0.0146901
-0.0149593
-0.0152619
-0.0154306
-0.0153983
-0.015162
-0.0146676
-0.0139845
-0.0131261
-0.0123848
-0.0118858
-0.0114508
-0.0110506
-0.0110571
-0.0114634
-0.0118943
-0.0123899
-0.013129
-0.013989
-0.0146796
-0.0151826
-0.015444
-0.015497
-0.0153493
-0.0150548
-0.0147963
-0.0144369
-0.0140059
-0.0133661
-0.0125012
-0.0111876
-0.00959811
-0.00960158
-0.0111911
-0.0125053
-0.0133693
-0.0140093
-0.0144397
-0.0147987
-0.0150569
-0.0153513
-0.0154973
-0.0154469
-0.0151863
-0.0146829
-0.0139897
-0.013129
-0.0123893
-0.0118924
-0.0114623
-0.0110585
-0.0110596
-0.0114636
-0.0118931
-0.0123917
-0.0131314
-0.0139924
-0.0146862
-0.01519
-0.0154498
-0.0154984
-0.0153515
-0.0150579
-0.0148017
-0.0144392
-0.0140132
-0.0133765
-0.0125114
-0.0111943
-0.00960482
-0.009595
-0.0111745
-0.0124825
-0.0133389
-0.0139741
-0.01439
-0.0147436
-0.0149953
-0.0152835
-0.0154332
-0.0154024
-0.0151572
-0.0146701
-0.0139818
-0.0131237
-0.012375
-0.011843
-0.0113664
-0.010943
-0.0109353
-0.011356
-0.0118279
-0.0123746
-0.0131306
-0.0139786
-0.0146725
-0.0151506
-0.0153974
-0.0153918
-0.0152082
-0.014917
-0.01465
-0.0142917
-0.0138432
-0.0131875
-0.0123234
-0.0110014
-0.00941006
-0.0105235
-0.00941786
-0.011009
-0.0123216
-0.0131787
-0.0138435
-0.0143017
-0.014658
-0.0149362
-0.0152157
-0.0153875
-0.0153892
-0.0151549
-0.0146774
-0.01397
-0.0131259
-0.0123745
-0.0118299
-0.0113834
-0.01099
-0.00798409
-0.0109913
-0.0113853
-0.0118243
-0.0123655
-0.0131187
-0.0139758
-0.0146799
-0.0151264
-0.0153558
-0.0153687
-0.0151938
-0.0148893
-0.0146313
-0.0143152
-0.0138687
-0.0131811
-0.0122704
-0.0109781
-0.0094103
-0.00941072
-0.0109911
-0.012273
-0.0131801
-0.0138696
-0.0143087
-0.0146212
-0.0148685
-0.0151715
-0.0153538
-0.0153392
-0.0151149
-0.0146963
-0.013972
-0.0130719
-0.012306
-0.0117616
-0.0113192
-0.0109278
-0.0109241
-0.0113122
-0.0117482
-0.0122926
-0.01305
-0.0139732
-0.014712
-0.0151149
-0.0153227
-0.0153349
-0.0151468
-0.0148492
-0.0146029
-0.0142925
-0.013855
-0.0131672
-0.0122608
-0.0109777
-0.00939619
-0.00939934
-0.0109807
-0.0122621
-0.0131687
-0.0138567
-0.0142934
-0.014603
-0.0148474
-0.0151436
-0.0153294
-0.0153186
-0.0151114
-0.0147098
-0.013973
-0.0130447
-0.0122917
-0.0117511
-0.0113116
-0.0109241
-0.0109251
-0.0113125
-0.0117525
-0.0122928
-0.0130455
-0.0139747
-0.0147106
-0.0151093
-0.0153148
-0.015325
-0.0151386
-0.0148426
-0.0145971
-0.0142887
-0.0138539
-0.0131644
-0.0122564
-0.0109754
-0.00940573
-0.00940675
-0.0109763
-0.0122581
-0.013165
-0.013858
-0.0142965
-0.0146079
-0.0148559
-0.0151559
-0.0153435
-0.0153339
-0.0151065
-0.0146825
-0.0139642
-0.0130978
-0.0123494
-0.0118139
-0.0113824
-0.0109918
-0.0109942
-0.0113913
-0.0118239
-0.0123637
-0.0131181
-0.0139706
-0.0146776
-0.0151192
-0.0153493
-0.0153605
-0.0151801
-0.0148769
-0.0146206
-0.0143061
-0.0138644
-0.013171
-0.0122603
-0.0109719
-0.00939605
-0.00939473
-0.0109678
-0.0122584
-0.0131673
-0.0138649
-0.0143052
-0.0146218
-0.0148871
-0.0151923
-0.015373
-0.0153605
-0.0151357
-0.0146862
-0.0139814
-0.0131399
-0.0123871
-0.0118536
-0.0114275
-0.0110124
-0.00792623
-0.0105235
-0.0111187
-0.0108188
-0.0110026
-0.0124149
-0.0139786
-0.00851734
-0.0148403
-0.0115411
-0.0112334
-0.0125623
-0.0116191
-0.0104466
-0.0104478
-0.0106396
-0.00834733
-0.0147488
-0.010758
-0.0109362
-0.00884912
-0.0150452
-0.0115165
-0.0112185
-0.0125946
-0.0116888
-0.0105443
-0.0106259
-0.0108043
-0.00866491
-0.0148323
-0.0107817
-0.0105529
-0.014448
-0.00888772
-0.014434
-0.0115555
-0.0150208
-0.0116948
-0.0150563
-0.0116174
-0.0149162
-0.0112426
-0.0149856
-0.0101367
-0.0104171
-0.0108467
-0.0109203
-0.0100044
-0.00879016
-0.0143553
-0.0114445
-0.0114815
-0.00946104
-0.0116199
-0.0102028
-0.0111624
-0.0128082
-0.0153165
-0.0115567
-0.0136646
-0.0127352
-0.0127471
-0.0135688
-0.0109977
-0.0110948
-0.0108031
-0.00892548
-0.0113137
-0.0108028
-0.0101262
-0.00994418
-0.0107869
-0.011562
-0.0127651
-0.00877656
-0.0127117
-0.0143261
-0.0107915
-0.0107222
-0.0104346
-0.00919301
-0.0111365
-0.00999085
-0.0113121
-0.0115842
-0.0100969
-0.0112555
-0.011127
-0.0113604
-0.00841
-0.0142631
-0.0109386
-0.0089514
-0.0111554
-0.00983449
-0.0121423
-0.0135664
-0.0111893
-0.0110185
-0.012184
-0.0128837
displacement_Z 1 746 double
-0.000280655
-0.000229487
-0.000294928
-0.0003814
0.00146113
0.00154792
0.00138682
0.0011749
0.000457363
-0.00104971
0.000549291
-0.00102829
0.000602927
-0.00119746
0.000543343
-0.0013441
0.000514934
-0.00142386
0.000470738
-0.00157831
0.000421459
-0.00141093
0.000429068
-0.00112661
-0.000341624
0.00110917
-0.000479222
0.00110648
-0.000526055
0.00127177
-0.000426868
0.00139785
-0.000407473
-0.000467261
-0.000548331
-0.000613827
-0.000638829
-0.000611428
-0.000497739
-0.000338285
-0.000167236
2.11334e-05
0.000179351
0.00029817
0.000404941
0.000530738
0.000669532
0.000837491
0.00105337
0.00128421
0.00143012
0.00143573
0.00129289
0.0010575
0.000845957
0.000661686
0.000511744
0.000377082
0.000264041
0.000155668
1.87143e-05
-0.000146685
-0.000313353
-0.000459976
-0.000607934
-0.000652717
-0.000619346
-0.000528685
-0.000400979
-0.00031096
0.00151403
0.00133061
0.00107768
0.00084816
0.000645967
0.000480247
0.000339603
0.000224307
0.000119628
5.83644e-06
-0.000144753
-0.000296436
-0.000446192
-0.000598827
-0.000653866
-0.000622357
-0.00052211
-0.000394621
-0.000305721
0.00150518
0.00131636
0.00106174
0.000832054
0.000633088
0.000470855
0.000329774
0.00020839
0.00010638
1.13667e-06
-0.000138893
-0.00026837
-0.000402059
-0.000536338
-0.000584846
-0.000566826
-0.000473814
-0.00034917
-0.000263592
-0.000261227
-0.00034373
-0.000464903
-0.000554068
-0.000562121
-0.00051057
-0.000379819
-0.00024931
-0.000132558
-2.82338e-06
9.08339e-05
0.000187672
0.000305862
0.000437816
0.000582024
0.000750474
0.000948738
0.00117391
0.00133365
0.0013238
0.00115596
0.000925537
0.000732685
0.000568529
0.000436808
0.000315755
0.000206113
0.000107041
-3.63144e-06
-0.000133771
-0.000268618
-0.000383338
-0.000480659
-0.000508303
-0.000493807
-0.000451769
-0.000372299
-0.00031566
-0.000319802
-0.000373973
-0.000448342
-0.000481629
-0.00049247
-0.000468651
-0.000384568
-0.000277172
-0.000138405
1.44836e-05
0.000138354
0.00023655
0.000346434
0.000452208
0.000563977
0.000666561
0.000854228
0.00101651
0.00113113
9.44421e-05
0.00102518
0.000827148
0.000617765
0.000395983
0.000307758
0.000210892
0.000138846
6.52283e-05
1.11923e-05
1.9978e-05
9.70523e-06
1.81446e-05
8.24913e-05
0.000145187
0.000209105
0.000263325
0.000317445
0.000361771
0.00041696
6.6713e-05
0.000453309
0.000439501
0.000442034
0.000453472
0.000453261
0.000407831
0.000315459
0.000218443
9.93625e-05
-2.29981e-05
-7.64611e-05
-0.000181103
-0.000282891
-0.000378967
-0.000465804
-0.000575678